# ODT 1.0
# Table Start
# Title: mmArchive Data Table, Mon Sep 07 16:02:38 CEST 2015
# Columns: {Oxs_RungeKuttaEvolve:evolve:Total energy} {Oxs_RungeKuttaEvolve:evolve:Energy calc count} {Oxs_RungeKuttaEvolve:evolve:Max dm/dt} Oxs_RungeKuttaEvolve:evolve:dE/dt {Oxs_RungeKuttaEvolve:evolve:Delta E} Oxs_MR::magnetoresistance Oxs_Exchange6Ngbr::Energy {Oxs_Exchange6Ngbr::Max Spin Ang} {Oxs_Exchange6Ngbr::Stage Max Spin Ang} {Oxs_Exchange6Ngbr::Run Max Spin Ang} Oxs_Demag::Energy    Oxs_MR::Energy       Oxs_TwoSurfaceExchange:FF:Energy Oxs_UniaxialAnisotropy:stat:Energy Oxs_UniaxialAnisotropy:ip:Energy Oxs_UniaxialAnisotropy:dyn:Energy Oxs_UZeeman::Energy  Oxs_UZeeman::B       Oxs_UZeeman::Bx      Oxs_UZeeman::By      Oxs_UZeeman::Bz      Oxs_TimeDriver::Iteration {Oxs_TimeDriver::Stage iteration} Oxs_TimeDriver::Stage Oxs_TimeDriver::mx   Oxs_TimeDriver::my   Oxs_TimeDriver::mz   {Oxs_TimeDriver::Last time step} {Oxs_TimeDriver::Simulation time}
# Units:                       J                                            {}                                        deg/ns                                 J/s                                  J                              Ohm                        J                            deg                                  deg                                    deg                          J                  J                             J                                 J                                 J                                 J                          J                 mT                   mT                   mT                   mT                        {}                            {}                          {}                   {}                   {}                   {}                          s                                 s                
                       6.3985851844444677e-18                          1                                           0.12553791570905248                 -1.336639412336199e-18                 0                               39292.058335770176        5.2499452224935969e-21           1.4549685644661745                   1.4549685644661745                     1.4549685644661745            5.66862304793448e-18  0                          0                                 1.784372293537718e-21               3.6806056726490632e-20              4.913824468955239e-19         1.9473931537194238e-19  39.993959772108255   28.280000161359737   0                    28.280000161359737     0                             0                           0                     0.22004573487902682  5.4509118400019582e-05 -0.96344896296786187        0                                0                         
                       6.3985851844245774e-18                          625                                         0.12673287566842445                 -1.3462948620345247e-18                -2.0184479325653145e-31             39292.261336196258        5.2506898934458028e-21           1.4550579560554768                   1.4550579560554768                     1.4550579560554768            5.668565932261083e-18  0                          0                                 1.784312589883162e-21               3.6805542235266576e-20              4.9144420248774132e-19         1.9473450495715732e-19  39.993959772108255   28.280000161359737   0                    28.280000161359737     100                           100                         0                     0.22005936040483409  5.6193204490639769e-05 -0.96344422508372585        1.5041368247274553e-13              1.4823876773658161e-11       
                       6.3985851844047604e-18                          1225                                        0.12906661165484595                 -1.3296075704311027e-18                -1.957593060220985e-31             39292.463629933154        5.2514399015954892e-21           1.4551473187662067                   1.4551473187662067                     1.4551473187662067            5.6685087051573885e-18  0                          0                                 1.7842619300260303e-21               3.6805026808872058e-20              4.9150607164323519e-19         1.9472967896364313e-19  39.993959772108255   28.280000161359737   0                    28.280000161359737     200                           200                         0                     0.22007303605028139  5.482475787423457e-05 -0.96343947784856498        1.4828070268845437e-13              2.9679468338984422e-11       
                       6.398585184385575e-18                          1825                                        0.13170015967633006                 -1.2827239063768742e-18                -1.8659722093314539e-31             39292.653032793096        5.2521459205874018e-21           1.4552308560344942                   1.4552308560344942                     1.4552308560344942            5.6684548674088283e-18  0                          0                                 1.7842276857073574e-21               3.6804541958858815e-20              4.9156426930041022e-19         1.9472513211118352e-19  39.993959772108255   28.280000161359737   0                    28.280000161359737     300                           300                         0                     0.22008592718943337  5.0591925337798705e-05 -0.96343501170786039        1.4644344377007927e-13              4.4440574300082643e-11       
                       6.3985851843672201e-18                          2425                                        0.12924376681684202                 -1.2221903970084936e-18                -1.7799072149416493e-31             39292.822730051783        5.2527738253744749e-21           1.4553040015514929                   1.4553046986235667                     1.4553046986235667            5.6684068651033857e-18  0                          0                                 1.7841942110893783e-21               3.6804109665965449e-20              4.9161615777508355e-19         1.9472108378632153e-19  39.993959772108255   28.280000161359737   0                    28.280000161359737     400                           400                         0                     0.22009739962113234  4.3740270322936702e-05 -0.96343102995268626        1.4674575846208634e-13              5.9201610390151031e-11       
                       6.3985851843498937e-18                          3025                                        0.11862421156257698                 -1.1526462937170161e-18                -1.6928980634892643e-31             39292.963519658224        5.2532864902953086e-21           1.455365894896774                    1.455365894896774                      1.455365894896774             5.6683672835927473e-18  0                          0                                 1.7841574872640713e-21               3.6803753117140111e-20              4.916589534287202e-19         1.9471775023372765e-19  39.993959772108255   28.280000161359737   0                    28.280000161359737     500                           500                         0                     0.22010684176722267  3.4618744656056692e-05 -0.96342774650325558        1.4829982976996256e-13              7.3923573116411909e-11       
                       6.3985851843335449e-18                          3625                                        0.12090413535295692                 -1.0906811034587552e-18                -1.5827476600488513e-31             39293.067075734012        5.2536646058007914e-21           1.4554113748246527                   1.4554113748246527                     1.4554113748246527            5.6683380126238892e-18  0                          0                                 1.784130591178469e-21               3.680348935790095e-20              4.9169060771569848e-19         1.9471527943907739e-19  39.993959772108255   28.280000161359737   0                    28.280000161359737     600                           600                         0                     0.22011384530213099  2.3706720020916888e-05 -0.96342531795859121        1.4598841775282838e-13              8.8640394992328978e-11       
                       6.3985851843179888e-18                          4225                                        0.11431615197380628                 -1.0459598032266349e-18                -1.5305030487254249e-31             39293.128293524627        5.2538903106315678e-21           1.4554379780449598                   1.4554380911508067                     1.4554380911508067            5.6683205011371986e-18  0                          0                                 1.7841194682710921e-21               3.6803331497619715e-20              4.9170954699206321e-19         1.9471379491220383e-19  39.993959772108255   28.280000161359737   0                    28.280000161359737     700                           700                         0                     0.22011805911176488  1.163950639831195e-05 -0.96342386469443786        1.4756288274960126e-13              1.0334936457376435e-10       
                       6.3985851843028987e-18                          4825                                        0.11379735577906899                 -1.0262878994251825e-18                -1.5044409283744738e-31             39293.145731577322        5.2539571232245223e-21           1.4554461662817502                   1.4554463250447889                     1.4554463250447889            5.668315548859766e-18  0                          0                                 1.7841168529398911e-21               3.6803286844947893e-20              4.9171489771782994e-19         1.9471337690418993e-19  39.993959772108255   28.280000161359737   0                    28.280000161359737     800                           800                         0                     0.22011924409758293 -9.4218696691588254e-07 -0.96342345396494189        1.4762942881494989e-13              1.1805857016847758e-10       
                       6.3985851842878926e-18                          5425                                        0.11945848873064036                 -1.0340933051878172e-18                -1.4924584091599317e-31             39293.118810605818        5.2538603037421309e-21           1.455434856531276                    1.4554463250447889                     1.4554463250447889            5.6683233204743981e-18  0                          0                                 1.7841207825639606e-21               3.6803356852272084e-20              4.9170648757896814e-19         1.9471403829594883e-19  39.993959772108255   28.280000161359737   0                    28.280000161359737     900                           900                         0                     0.22011736450902453 -1.3411201056371355e-05 -0.96342409919150973        1.4544636003818306e-13              1.3277434989864226e-10       
                       6.3985851842726077e-18                          6025                                        0.11669426330587659                 -1.06577056016812e-18                -1.559228369077599e-31             39293.048112352946        5.2536008946984895e-21           1.455403994816727                    1.4554463250447889                     1.4554463250447889            5.6683433220110685e-18  0                          0                                 1.7841367078117677e-21               3.6803536977534915e-20              4.916848619031692e-19         1.9471572577832479e-19  39.993959772108255   28.280000161359737   0                    28.280000161359737     1000                          1000                        0                     0.2201125819783997  -2.5115384825042115e-05 -0.96342575850260326        1.4791992975525507e-13              1.47495182504688e-10       
                       6.3985851842567865e-18                          6625                                        0.12494958761475597                 -1.1089323252922432e-18                -1.6118359730565593e-31             39292.93787432558         5.2531947510376661e-21           1.455355402360814                    1.4554463250447889                     1.4554463250447889            5.6683743547253293e-18  0                          0                                 1.7841633196312717e-21               3.680381643931113e-20              4.9165131691193229e-19         1.9471833810954468e-19  39.993959772108255   28.280000161359737   0                    28.280000161359737     1100                          1100                        0                     0.2201051836176757  -3.5404402281795503e-05 -0.96342833252704951        1.4673857035004682e-13              1.6219730376916513e-10       
                       6.3985851842402782e-18                          7225                                        0.12489880126614469                 -1.1562948570939762e-18                -1.6851473239376824e-31             39292.795053810682        5.252663569051438e-21           1.4552927463350938                   1.4554463250447889                     1.4554463250447889            5.6684147408770531e-18  0                          0                                 1.7841943499882366e-21               3.6804180178991754e-20              4.9160766255395844e-19         1.9472174271123513e-19  39.993959772108255   28.280000161359737   0                    28.280000161359737     1200                          1200                        0                     0.22009553674688126 -4.3775541326661129e-05 -0.96343168247655764        1.4732506264602728e-13              1.7690555110701485e-10       
                       6.3985851842231321e-18                          7825                                        0.12638753711650616                 -1.1946053865422673e-18                -1.742904533568725e-31             39292.627473430119        5.2520420565625304e-21           1.4552195813816193                   1.4554463250447889                     1.4554463250447889            5.668462265847895e-18  0                          0                                 1.7842300381562506e-21               3.6804608327492572e-20              4.9155628274518373e-19         1.9472575520784159e-19  39.993959772108255   28.280000161359737   0                    28.280000161359737     1300                          1300                        0                     0.22008416197437797 -4.9827762119045439e-05 -0.96343562511915359        1.4752104647277518e-13              1.9160899864030508e-10       
                       6.3985851842055391e-18                          8425                                        0.12951784764887281                 -1.2150745393546696e-18                -1.7670482471391342e-31             39292.443176022134        5.2513636390297131e-21           1.4551378145287566                   1.4554463250447889                     1.4554463250447889            5.6685144079704647e-18  0                          0                                 1.7842736508281228e-21               3.6805078139191962e-20              4.9149990442440498e-19         1.947301563816201e-19  39.993959772108255   28.280000161359737   0                    28.280000161359737     1400                          1400                        0                     0.22007168656858356 -5.3259445154560646e-05 -0.96343995087540513        1.4646323509792936e-13              2.0631260759165313e-10       
                       6.3985851841878151e-18                          9025                                        0.12437548846049351                 -1.2118453364953778e-18                -1.7747557284986057e-31             39292.251926266974        5.2506635484568175e-21           1.4550532795782281                   1.4554463250447889                     1.4554463250447889            5.6685684012231954e-18  0                          0                                 1.7843203967344644e-21               3.6805564654537069e-20              4.914415222039066e-19         1.9473471216098475e-19  39.993959772108255   28.280000161359737   0                    28.280000161359737     1500                          1500                        0                     0.22005877447228836 -5.388332335265227e-05 -0.96344443013678494        1.4791697652549766e-13              2.2101541178655968e-10       
                       6.3985851841703138e-18                          9625                                        0.12924597990771905                 -1.1842834029048995e-18                -1.7128231629334424e-31             39292.064500556735        5.2499764735780412e-21           1.4549716268841619                   1.4554463250447889                     1.4554463250447889            5.668621407005295e-18  0                          0                                 1.7843619711957357e-21               3.6806042263279128e-20              4.9138420901948335e-19         1.9473918743748306e-19  39.993959772108255   28.280000161359737   0                    28.280000161359737     1600                          1600                        0                     0.22004608783787116 -5.168672054014081e-05 -0.96344882754617467        1.4575534041021616e-13              2.3571820796428703e-10       
                       6.3985851841533726e-18                          10225                                       0.11754615573632093                 -1.1368947090699702e-18                -1.6690007335347875e-31             39291.890667552456        5.249333730250101e-21           1.4548948548012586                   1.4554463250447889                     1.4554463250447889            5.6686706703929782e-18  0                          0                                 1.7843984062206611e-21               3.6806486085994574e-20              4.913309477270846e-19         1.9474334781084376e-19  39.993959772108255   28.280000161359737   0                    28.280000161359737     1700                          1700                        0                     0.22003429266693331 -4.6830750635912108e-05 -0.96345291429913216        1.4817253196333732e-13              2.5042304146726667e-10       
                       6.3985851841372271e-18                          10825                                       0.12452146762581494                 -1.0774328878981825e-18                -1.5558862035393411e-31             39291.738837145742        5.2487708364216889e-21           1.4548271010417844                   1.4554463250447889                     1.4554463250447889            5.6687136340651552e-18  0                          0                                 1.7844338277936544e-21               3.6806873095880053e-20              4.9128449950610499e-19         1.947469728058717e-19  39.993959772108255   28.280000161359737   0                    28.280000161359737     1800                          1800                        0                     0.22002401848198735 -3.9597319342511704e-05 -0.96345647827008563        1.4537816243707087e-13              2.6512577856493259e-10       
                       6.3985851841219753e-18                          11425                                       0.11154990926040974                 -1.0170671491008376e-18                -1.4894002430568325e-31             39291.616697551988        5.2483181010745834e-21           1.4547731041318921                   1.4554463250447889                     1.4554463250447889            5.6687481165726239e-18  0                          0                                 1.7844649434832996e-21               3.6807183658331603e-20              4.9124722155933075e-19         1.9474987928713164e-19  39.993959772108255   28.280000161359737   0                    28.280000161359737     1900                          1900                        0                     0.22001578344984496 -3.0366296164007256e-05 -0.96345933851958476        1.4807806438287151e-13              2.7982972812995964e-10       
                       6.3985851841075586e-18                          12025                                       0.11713042389717579                 -9.656898002032172e-19                -1.3989812175915821e-31             39291.530917105352        5.2480021899570177e-21           1.454736133867121                    1.4554463250447889                     1.4554463250447889            5.6687723734629542e-18  0                          0                                 1.7844843144908229e-21               3.6807402103179861e-20              4.9122099626937074e-19         1.9475192576760704e-19  39.993959772108255   28.280000161359737   0                    28.280000161359737     2000                          2000                        0                     0.22000998335386021 -1.9637721039613401e-05 -0.96346135071455308        1.4613966253174775e-13              2.9452866808583281e-10       
                       6.3985851840937635e-18                          12625                                       0.10909578292218351                 -9.3304964386363891e-19                -1.3643953526039485e-31             39291.485642185318        5.2478377235570771e-21           1.4547163587547023                   1.4554463250447889                     1.4554463250447889            5.66878523305569e-18  0                          0                                 1.7844914968421718e-21               3.6807517876775572e-20              4.912070907846704e-19         1.9475301315622851e-19  39.993959772108255   28.280000161359737   0                    28.280000161359737     2100                          2100                        0                     0.22000689923103714 -7.9868296224171879e-06 -0.96346241761901386        1.4783814458224618e-13              3.0923094762202492e-10       
                       6.398585184080282e-18                          13225                                       0.11256997068930279                 -9.2294291090775181e-19                -1.3445116305609193e-31             39291.482554363203        5.247828600330622e-21           1.4547147139130914                   1.4554463250447889                     1.4554463250447889            5.6687861008578375e-18  0                          0                                 1.7844915208763624e-21               3.6807525611650432e-20              4.912061511536417e-19         1.9475308633594658e-19  39.993959772108255   28.280000161359737   0                    28.280000161359737     2200                          2200                        0                     0.22000669186714533  3.9666843562230848e-06 -0.96346248961339565        1.4695315684664539e-13              3.2393005020985572e-10       
                       6.3985851840667704e-18                          13825                                       0.11218773753125214                 -9.3657542508110013e-19                -1.363481288196749e-31             39291.521548376033        5.2479733331800678e-21           1.454732476413517                    1.4554463250447889                     1.4554463250447889            5.6687750118490175e-18  0                          0                                 1.7844848296059571e-21               3.6807425646620176e-20              4.9121814056400355e-19         1.9475214784434306e-19  39.993959772108255   28.280000161359737   0                    28.280000161359737     2300                          2300                        0                     0.2200093545327656   1.5612659042939802e-05 -0.96346156965531127        1.4714746007468093e-13              3.3863482369702772e-10       
                       6.3985851840529207e-18                          14425                                       0.1128746613863805                  -9.6823427482374902e-19                -1.4149171594068097e-31             39291.600635089126        5.2482617839564446e-21           1.4547677297836197                   1.4554463250447889                     1.4554463250447889            5.6687526381480807e-18  0                          0                                 1.7844674371750594e-21               3.6807224030715412e-20              4.9124233521765052e-19         1.9475025743534292e-19  39.993959772108255   28.280000161359737   0                    28.280000161359737     2400                          2400                        0                     0.22001471482357843  2.6333495664250316e-05 -0.96345971344672032        1.4775361206806295e-13              3.5333814176004376e-10       
                       6.3985851840385232e-18                          15025                                       0.11994655395960416                 -1.0100946389394426e-18                -1.4617037153604981e-31             39291.715355538341        5.2486810635958001e-21           1.4548179806568959                   1.4554463250447889                     1.4554463250447889            5.668720235113457e-18  0                          0                                 1.7844394902836865e-21               3.6806932103931265e-20              4.9127737373631176e-19         1.9474752253094393e-19  39.993959772108255   28.280000161359737   0                    28.280000161359737     2500                          2500                        0                     0.22002246697626085  3.5563775680308672e-05 -0.96345702529999722        1.4594591929045471e-13              3.6804332194554003e-10       
                       6.3985851840235071e-18                          15625                                       0.11416316189723726                 -1.0516326964213768e-18                -1.5397452555093301e-31             39291.859100895657        5.2492101661905944e-21           1.4548806416387863                   1.4554463250447889                     1.4554463250447889            5.6686795783263233e-18  0                          0                                 1.7844059421048204e-21               3.6806565892754101e-20              4.9132133210210393e-19         1.9474409159403039e-19  39.993959772108255   28.280000161359737   0                    28.280000161359737     2600                          2600                        0                     0.22003219157608325  4.2833541914660323e-05 -0.96345365254671123        1.4829798762638237e-13              3.8274896405273891e-10       
                       6.3985851840079587e-18                          16225                                       0.12596581973112433                 -1.08227613144899e-18                -1.5562247459123779e-31             39292.024104077558        5.2498212134643673e-21           1.4549534012707805                   1.4554463250447889                     1.4554463250447889            5.6686328664976849e-18  0                          0                                 1.7843696827096456e-21               3.6806145220680833e-20              4.9137183081317185e-19         1.947401505802467e-19  39.993959772108255   28.280000161359737   0                    28.280000161359737     2700                          2700                        0                     0.22004336126087698  4.7790357917572616e-05 -0.96344977769690121        1.451111731097919e-13              3.9745184859496412e-10       
                       6.3985851839920867e-18                          16825                                       0.11603268845523769                 -1.0949899928823559e-18                -1.6008013724865203e-31             39292.201891007957        5.2504803908071261e-21           1.4550321533934079                   1.4554463250447889                     1.4554463250447889            5.6685825764138468e-18  0                          0                                 1.7843301761469107e-21               3.6805692355293678e-20              4.9142619495935843e-19         1.9473590969663316e-19  39.993959772108255   28.280000161359737   0                    28.280000161359737     2800                          2800                        0                     0.22005537902010405  5.0199159953064803e-05 -0.96344560619017661        1.4817481936134528e-13              4.121566436108458e-10       
                       6.3985851839761986e-18                          17425                                       0.12573686996468197                 -1.0847626574503878e-18                -1.5709137233202532e-31             39292.382963311407        5.2511484665836505e-21           1.4551111598163997                   1.4554463250447889                     1.4554463250447889            5.6685313966976356e-18  0                          0                                 1.7842885206114374e-21               3.6805231423918794e-20              4.914815250815102e-19         1.9473159378593847e-19  39.993959772108255   28.280000161359737   0                    28.280000161359737     2900                          2900                        0                     0.22006760918537108  4.9944480923693855e-05 -0.96344136067904451        1.4582449887730404e-13              4.2685588281522325e-10       
                       6.3985851839606124e-18                          18025                                       0.11507376323185749                 -1.0536317340993427e-18                -1.5439958430819035e-31             39292.557682704981        5.2517910583665324e-21           1.4551872805290207                   1.4554463250447889                     1.4554463250447889            5.6684819854272537e-18  0                          0                                 1.7842485116511348e-21               3.6804786351890107e-20              4.9153494778934143e-19         1.9472742482211049e-19  39.993959772108255   28.280000161359737   0                    28.280000161359737     3000                          3000                        0                     0.22007942485458562  4.7056303392597101e-05 -0.96343726163087262        1.4802296024689204e-13              4.4155715942606144e-10       