# OOMMF OVF 2.0
#
# Segment count: 1
#
# Begin: Segment
# Begin: Header
#
# Title: Oxs_TimeDriver::Magnetization
# Desc: Oxs vector field output
# Desc:  MIF source file: /mnt/gpfs/work/plgrid/groups/plggspinsym/MF/switching-obrazki/p-ap/Anisotropy.mif
# Desc:  Iteration: 0, State id: 44
# Desc:  Stage: 0, Stage iteration: 0
# Desc:  Stage simulation time: 0 s
# Desc:  Total simulation time: 0 s
# meshunit: m
# meshtype: rectangular
# xbase: 1.0000000000000001e-09
# ybase: 1.0000000000000001e-09
# zbase: 3.4999999999999998e-10
# xnodes: 35
# ynodes: 35
# znodes: 5
# xstepsize: 2.0000000000000001e-09
# ystepsize: 2.0000000000000001e-09
# zstepsize: 6.9999999999999996e-10
# xmin: 0
# ymin: 0
# zmin: 0
# xmax: 7.0000000000000005e-08
# ymax: 7.0000000000000005e-08
# zmax: 3.4999999999999999e-09
# valuedim: 3
# valuelabels: Magnetization_x Magnetization_y Magnetization_z
# valueunits: A/m A/m A/m
#
# End: Header
#
# Begin: Data Text
 -0 0 -0
 0 0 -0
 -0 -0 0
 -0 0 0
 0 0 0
 -0 0 -0
 0 0 0
 0 -0 0
 -0 0 0
 0 0 0
 0 0 0
 -0 -0 0
 0 0 0
 1273.3346360802716 -35096.486672839113 -999383.11734896118
 4091.5945326411479 -34822.215791007708 -999385.14704871667
 6802.5532026160618 -34583.619887584857 -999378.65621865098
 8886.1561832192419 -34516.433108837962 -999364.62418565247
 10563.505733310616 -34621.755518356011 -999344.65845945745
 12159.087132934004 -34875.157879448554 -999317.7072197696
 14005.970284126905 -35254.79046239124 -999280.207222105
 16383.69597131183 -35720.54130506263 -999227.51034746482
 18973.707764736493 -36120.480307491664 -999167.30796999892
 0 0 0
 -0 0 -0
 -0 0 -0
 -0 0 0
 0 -0 0
 -0 0 0
 -0 -0 0
 0 0 0
 0 -0 0
 0 -0 -0
 0 -0 0
 -0 -0 0
 0 0 -0
 -0 -0 -0
 -0 -0 -0
 -0 -0 -0
 -0 0 -0
 0 0 -0
 0 0 -0
 -0 -0 0
 0 0 0
 0 0 -0
 0 0 0
 -3580.8987531383641 -32662.925436465797 -999460.00943812227
 -1067.4470566262146 -31888.291374387805 -999490.8691078691
 802.00529865246676 -30651.215493594198 -999529.81935321272
 2372.6067996688348 -30168.283113979338 -999542.01784163574
 4871.6103257119885 -29094.424296447229 -999564.79624269111
 7216.6233219001997 -28451.9376798128 -999569.11096236552
 9085.6453216910322 -28206.490390508116 -999560.82603758469
 10634.325003809674 -28237.118437385605 -999544.68448092218
 12123.785133329342 -28480.935466605544 -999520.81026309193
 13833.348611887925 -28938.255618061175 -999485.4755462762
 16006.210269522553 -29675.312580484831 -999431.42689033865
 18563.924137574057 -30749.367781330231 -999354.72035792319
 20640.188992905907 -31424.346722548678 -999292.9965887873
 22413.024972777581 -33260.089958471959 -999195.38766325579
 24589.958133420107 -34475.620439332619 -999102.98045512789
 -0 0 -0
 0 -0 0
 -0 0 -0
 0 -0 -0
 -0 0 0
 -0 0 0
 -0 0 -0
 -0 0 0
 -0 0 -0
 -0 0 0
 0 -0 -0
 -0 0 -0
 -0 0 0
 -0 0 0
 -0 -0 0
 0 0 -0
 0 -0 -0
 -0 -0 0
 -8620.8740461670404 -29970.369806620216 -999513.61044476763
 -5722.366859211952 -29005.518336490179 -999562.87167119212
 -2797.0537389512028 -28155.819374069462 -999599.63301601715
 131.70751059449171 -26460.050046253345 -999649.86290434783
 2356.3066367899664 -24811.693731827636 -999689.36558972718
 4172.4574755786316 -23417.205561349139 -999717.07251717581
 6093.5239308513483 -22205.063874157273 -999734.86690444511
 7876.9892999163758 -21455.171509313092 -999738.78020964796
 9385.713180340048 -21122.051745286546 -999732.84797398059
 10697.981258305368 -21097.238392154355 -999720.19071799354
 11981.147356355679 -21321.370989762479 -999700.88088744937
 13421.209521415378 -21804.75089509978 -999672.15824658494
 15161.881438580522 -22630.233383904626 -999628.92609619512
 17169.301272999906 -23899.499820998521 -999566.92072222114
 19169.476000341219 -25497.873787519977 -999491.06530383148
 21334.795094909972 -27492.98039721882 -999394.29783601244
 24134.542600898807 -29439.026816163008 -999275.17108830565
 27155.482281204506 -30578.368102037144 -999163.42166148755
 29842.601738413876 -32094.737948011702 -999039.21190188057
 -0 0 -0
 -0 -0 -0
 0 0 -0
 -0 0 0
 -0 0 -0
 0 0 -0
 0 -0 -0
 -0 -0 -0
 -0 -0 0
 0 0 0
 0 0 0
 0 0 -0
 -0 0 0
 0 0 0
 -0 -0 -0
 -11151.989966401323 -26985.14170252952 -999573.62672645762
 -7847.6947692007852 -26115.692054431962 -999628.12301141641
 -4002.7363111037721 -24077.281315572425 -999702.08693714079
 -735.04938836950555 -22077.165593903406 -999755.999462737
 1969.2973669270673 -20170.698516031425 -999794.61130236951
 4055.8262681610759 -18564.098539719133 -999819.44595946441
 5718.0988320031338 -17264.448505300279 -999834.60740442225
 7204.1339586415143 -16259.424815963835 -999841.85327408649
 8532.6839747264385 -15613.913049963008 -999841.68698022165
 9694.7901842243919 -15302.255122905111 -999835.91255337361
 10747.247094572909 -15264.153980987019 -999825.73595758819
 11793.176263623865 -15463.207090046017 -999810.88722823258
 12946.79964458245 -15908.627796004104 -999789.62584166229
 14295.033116296256 -16653.845495453301 -999759.12171803543
 15853.343839701602 -17759.323298178744 -999716.59880442661
 17595.755071190961 -19216.183135508738 -999660.50622657756
 19664.236933737015 -21015.012744955482 -999585.75771423604
 22296.534099175173 -23080.70728343914 -999484.94011588814
 25491.375494346026 -25270.137329223624 -999355.5973399902
 29209.634156514949 -27527.858037880658 -999194.18248120765
 32633.759871260314 -28512.024123522267 -999060.60987161566
 -0 -0 -0
 0 -0 0
 -0 0 -0
 -0 -0 -0
 0 -0 -0
 0 -0 -0
 0 0 -0
 0 -0 -0
 -0 0 -0
 0 0 -0
 -0 0 0
 -0 0 0
 -0 0 -0
 -12371.893108032225 -25187.929529086261 -999606.17468429101
 -9421.3185195251626 -23700.041133012564 -999674.72050044709
 -5370.0604683649508 -21176.680103314025 -999761.32685274829
 -1605.1922376096686 -18680.867784035112 -999824.20881708793
 1409.3012953366813 -16583.310330725744 -999861.49425224576
 3743.0418312275287 -14861.608309130306 -999882.55422140239
 5522.1921682201992 -13497.145103368875 -999893.66057982179
 6912.6934018262145 -12444.232691750172 -999898.67273771588
 8070.381672852197 -11670.407187269269 -999899.3302006647
 9070.077129721969 -11171.106187852476 -999896.46468391945
 9953.9499911175935 -10924.016811858701 -999890.78640432958
 10775.043509460358 -10897.066254437415 -999882.56929722289
 11602.572644454363 -11071.1187559061 -999871.39704940189
 12509.99499597523 -11452.396779825323 -999856.16097176599
 13558.87825298946 -12070.790412299089 -999835.21284226771
 14789.76801665016 -12961.729031214076 -999806.60947131913
 16248.139913982204 -14142.843538334786 -999767.96204218594
 18047.908548456558 -15631.061188307247 -999714.93082936096
 20351.769490435527 -17445.006012998288 -999640.67406434345
 23294.420601392576 -19604.993821811415 -999536.39963039476
 26981.517718617368 -22129.01461100598 -999390.96674622083
 31125.487720583518 -24686.732900158553 -999210.57301895681
 34396.021667914378 -26352.525065243037 -999060.78799846105
 0 -0 -0
 -0 0 -0
 0 0 0
 0 0 -0
 0 -0 0
 -0 0 0
 -0 0 0
 0 -0 0
 -0 -0 -0
 -0 -0 -0
 0 0 0
 -13134.224421288591 -24015.281551929016 -999625.30900374497
 -10327.3608335358 -22253.054930256792 -999699.02829025732
 -6369.8105813442626 -19358.5390603372 -999792.31467270607
 -2486.9749368222265 -16504.478777893182 -999860.69886556384
 777.39549136022424 -14115.948175077931 -999900.06283796614
 3320.4250680327641 -12241.150453864771 -999919.56127127213
 5247.0671696949521 -10793.562793996309 -999927.98105079983
 6699.8744619909185 -9691.9220339094736 -999930.58675564185
 7818.0538355911904 -8871.2474501272627 -999930.08705754147
 8717.7561328315696 -8287.9289969509227 -999927.6528634209
 9476.4088937962806 -7916.9877847792068 -999923.75658291718
 10147.818728162934 -7736.7411068260108 -999918.57899136283
 10781.053786340846 -7727.65749078107 -999912.02222443616
 11427.580653277641 -7879.4075633880757 -999903.65802754357
 12139.495063128235 -8196.0022107834775 -999892.72334954666
 12965.396436062092 -8694.8207671028376 -999878.14186883986
 13951.488427046274 -9399.5595213902234 -999858.49211349594
 15156.339713201796 -10334.105844107977 -999831.73165433225
 16673.342411567428 -11529.619961310809 -999794.51264566078
 18629.641774192132 -13032.94619213009 -999741.50597087771
 21167.680512524137 -14913.401469150884 -999664.70366735454
 24420.690527079976 -17257.063597598346 -999552.81182645343
 28371.153256156769 -20065.148537184046 -999396.05136156932
 32567.589878417944 -23041.628006885148 -999203.90084722138
 35769.061735440868 -25105.071142748213 -999044.69851227559
 0 -0 0
 0 0 0
 0 -0 -0
 0 -0 0
 0 -0 -0
 -0 -0 0
 0 -0 -0
 0 -0 0
 0 0 -0
 -14065.460608298159 -22873.271203791555 -999639.42313331866
 -11142.933951837882 -21143.415639245279 -999714.35470240749
 -7135.9863712657152 -18168.961789231471 -999809.46511123353
 -3206.2584070156199 -15144.850792946965 -999880.16952107148
 164.74213441562932 -12559.074692535856 -999921.11814027431
 2857.1822000352468 -10513.07888066866 -999940.65408019326
 4918.2725186984117 -8952.6930652319679 -999947.82858022733
 6464.4887594306665 -7780.7514945945031 -999948.83383664116
 7621.4464539879627 -6911.4456186036869 -999947.07133598323
 8501.6682868378794 -6280.3601699887977 -999944.13779594505
 9196.3889692083903 -5843.5035988926293 -999940.63818589586
 9773.255814889917 -5572.4488883259546 -999936.71363950009
 10283.195530988962 -5447.2753229706404 -999932.28924824065
 10769.427703899111 -5454.1365153777006 -999927.13325611979
 11272.836775623193 -5586.6438799815314 -999920.85314848216
 11833.595703465977 -5847.4266284808882 -999912.88301259093
 12491.804748137909 -6247.6915851564809 -999902.45582456246
 13290.752270451449 -6805.0719472504097 -999888.51723573566
 14285.231116370556 -7542.9559876831208 -999869.50947957183
 15551.617743105924 -8495.0065935129951 -999842.9786964294
 17190.992582145609 -9712.1860959429105 -999805.0526053959
 19324.924940652945 -11269.496418766244 -999749.74154860654
 22081.052564240959 -13264.925468694733 -999668.17938252154
 25541.155752651877 -15785.101028669285 -999549.1383360466
 29637.348883170911 -18811.672612877876 -999383.6843398452
 33944.735812456522 -21972.780947141408 -999182.14145773812
 37272.63903370122 -24129.059666688539 -999013.78311766288
 0 -0 0
 0 -0 0
 0 0 -0
 0 0 -0
 0 0 -0
 0 -0 0
 -0 0 -0
 -15831.006879215209 -21191.59281954202 -999650.08658778248
 -12459.315101977096 -19850.040336586888 -999725.33296192205
 -8125.437645362681 -17098.00771520436 -999820.8016415952
 -3977.262057132752 -14144.254434701581 -999892.05490043538
 -451.3166778692709 -11525.307425158977 -999933.47958852327
 2374.4623934598785 -9396.236792147507 -999953.03522839909
 4557.6200298613703 -7745.3843033836683 -999959.6177454649
 6202.9999719188017 -6499.7665290329742 -999959.63709862647
 7426.1332620789981 -5575.1699727679743 -999956.88408278313
 8334.0157107209216 -4899.3046434170365 -999953.26940619794
 9017.5267310849922 -4417.4696094383125 -999949.58381605614
 9549.6470049557047 -4091.2511939977171 -999946.0314965744
 9986.7946521633748 -3894.8646387659905 -999942.54533049115
 10373.119818050789 -3811.1669826514631 -999938.93483125803
 10745.580654462639 -3829.4988663056042 -999934.93160046742
 11137.775374528279 -3945.3249114033401 -999930.18974878942
 11582.302907128307 -4160.4196887988264 -999924.2677160009
 12112.78001378905 -4482.7026963081516 -999916.5894897806
 12767.04238652919 -4925.9278813545125 -999906.36454780528
 13592.270992125381 -5510.5428590088959 -999892.43625835853
 14650.701864561242 -6266.9512900678164 -999873.03306790092
 16023.218956477413 -7240.4469098173668 -999845.40424148517
 17809.849452528568 -8496.0765435674912 -999805.29401771224
 20125.122363790011 -10119.28842186011 -999746.25753321906
 23081.482591735843 -12202.998024162418 -999659.10789658176
 26754.27420231306 -14808.092413675766 -999532.35525968613
 31100.051437227721 -17862.985907457936 -999356.64331362292
 35733.231238673696 -20934.553728120849 -999142.07230275718
 39481.580730272886 -22845.244581293297 -998959.10806351819
 0 0 0
 0 0 0
 -0 0 0
 0 -0 0
 -0 0 -0
 -18966.961044962914 -18269.034079884052 -999653.18825205928
 -14955.742005345253 -17904.77181883654 -999727.83542681497
 -9909.8799745025917 -15776.469586083298 -999826.43358049425
 -5213.060960621704 -13156.568820723694 -999899.85933206649
 -1312.3825866170903 -10688.795645864944 -999942.01196848776
 1764.4152752192049 -8601.9283724189372 -999961.44609030418
 4122.9154990053203 -6935.1818298851276 -999967.45188069728
 5895.6957437144756 -5650.1010345323584 -999966.65800915426
 7208.8931906930156 -4682.4699968562581 -999963.05248428741
 8172.9756591460427 -3966.8693480657771 -999958.73235671595
 8880.434126651593 -3447.6863626993404 -999954.62464477192
 9406.351221464116 -3082.1154139540613 -999951.00936059537
 9810.3103112025565 -2839.2930785933017 -999947.8467532252
 10139.089950479094 -2697.9930420737323 -999944.95832946768
 10430.030552277578 -2644.2203390808631 -999942.10960508953
 10714.452260169184 -2669.6029106480714 -999939.0350081668
 11020.507137763507 -2770.6799847885591 -999935.4337930266
 11375.425062552866 -2948.6858857938328 -999930.95009415178
 11807.653119745912 -3209.5114364479969 -999925.13637979073
 12349.54046013337 -3563.9633553178996 -999917.39009561448
 13040.854784987076 -4028.8421651551598 -999906.84792998864
 13932.685630945949 -4629.2539939792941 -999892.21933094796
 15090.910578256327 -5401.8457771450649 -999871.53398830141
 16598.804540042911 -6397.936882128708 -999841.7605258812
 18558.209396026821 -7684.3489391309222 -999798.25147146301
 21087.77379444749 -9337.8520973752129 -999734.01978456334
 24315.537666261691 -11426.820557395384 -999639.02604887809
 28353.070430554671 -13965.61991728324 -999500.40763247618
 33206.886851093805 -16807.80469695841 -999307.16016994871
 38512.565672886478 -19401.099729248413 -999069.75713139644
 42942.653275285797 -20446.628131279092 -998868.291581898
 0 0 0
 -0 -0 -0
 0 -0 -0
 0 0 -0
 -17936.558783253498 -15757.110393174878 -999714.95604050672
 -12902.27141501285 -14241.768981956222 -999815.3346536539
 -7389.8503871983958 -12069.307863414844 -999899.85594506073
 -2782.0653399934176 -9874.6239573108214 -999947.37457235507
 789.63427320528024 -7934.0500595171097 -999968.21315848222
 3476.6141135700714 -6330.8987840926548 -999973.91609726055
 5466.4799543859945 -5060.1301789529525 -999972.25595487421
 6923.9690646208137 -4081.0475329279084 -999967.70133011101
 7982.0371761690867 -3342.8656596714959 -999962.55546480312
 8745.4840824068942 -2796.9674236516184 -999957.84585221158
 9296.3399140693782 -2402.2916277554782 -999953.90246707748
 9698.6433356741527 -2126.800674245233 -999950.70530318609
 10002.391749496974 -1946.9064564589819 -999948.079509401
 10246.909178495509 -1846.0689174784484 -999945.79497182718
 10463.867516797729 -1813.3187128983504 -999943.60808589414
 10679.960359992527 -1842.1481574074119 -999941.27074387472
 10919.165803054808 -1929.8774512319553 -999938.52180581016
 11204.692051825632 -2077.3912861432004 -999935.06755262264
 11560.883740538702 -2289.1535228972061 -999930.55046002392
 12015.413267464806 -2573.5677792494571 -999924.50044635765
 12601.936526269981 -2943.8844966308598 -999916.25886364025
 13363.157523332815 -3419.7800019800343 -999904.86103716108
 14354.174093885405 -4029.4195468918992 -999888.85455544386
 15646.169020827487 -4811.4144461563374 -999866.01486699155
 17330.639346938246 -5815.5164865024808 -999832.90039277135
 19524.215498407797 -7100.0833768978973 -999784.17362209375
 22372.972596099753 -8723.0683341654658 -999711.63751156349
 26048.784189332277 -10719.761883414378 -999603.19504662475
 30706.490613872309 -13051.768293393954 -999443.22639087192
 36274.343007545416 -15490.662360773747 -999221.80291414552
 41499.79389899259 -17370.016808192689 -998987.51224548556
 -0 0 -0
 -0 -0 -0
 0 0 -0
 -21373.905104055691 -13304.573162116059 -999683.02201926813
 -16920.341921338884 -12931.386108086475 -999773.21492555924
 -10800.506257830113 -11104.984499076279 -999880.00699276407
 -5224.1889990797454 -9120.5440834798883 -999944.76023674582
 -849.33798075282311 -7333.20630243907 -999972.75098390575
 2405.7760201004471 -5828.8802863048395 -999980.11800052749
 4775.8836807892048 -4611.8048844968025 -999977.96085252543
 6482.8226482080881 -3654.2523382012491 -999972.30934179411
 7702.7512689076893 -2917.2696392405469 -999966.07800501981
 8568.6481566376351 -2360.8803722146858 -999960.50147625129
 9179.7925822334455 -1949.0672460042963 -999955.96530298167
 9610.6025674951798 -1651.8783957546718 -999952.45267765375
 9917.4158469998274 -1445.8407056544875 -999949.77594255784
 10143.463857372795 -1313.4439197237698 -999947.69113491324
 10322.57742300819 -1242.2326552645923 -999945.94916594168
 10482.064694776924 -1223.8716748973566 -999944.31267839007
 10645.022223443149 -1253.4047498248135 -999942.55458921019
 10832.241040011997 -1328.7849527374115 -999940.44666900078
 11063.874378077704 -1450.6642970509504 -999937.741190342
 11361.073985657262 -1622.4271631971533 -999934.14469553565
 11747.808643135644 -1850.5054756338695 -999929.27981011185
 12253.032061126829 -2145.0513033805137 -999922.62798689329
 12913.318005498782 -2520.9948408385512 -999913.44165537704
 13776.123207522785 -2999.3711910410329 -999900.60616134712
 14904.009469077399 -3608.6016452607096 -999882.41733511421
 16380.35926197351 -4385.1653987695099 -999856.21674062416
 18317.173422266584 -5372.7790226992329 -999817.79060156352
 20864.80030302826 -6618.7015291527923 -999760.39774457098
 24219.537195372697 -8164.6101755216378 -999673.3232205027
 28610.180168686555 -10026.602996256346 -999540.35677558847
 34187.941010057475 -12148.131992272118 -999341.58703547961
 40540.781148151582 -14235.987504902825 -999076.46440282941
 45667.797608314788 -15102.048778839271 -998842.52031253034
 -0 -0 0
 0 0 -0
 -20620.823345632791 -11171.878700750349 -999724.94755849917
 -15180.230950466263 -10183.776857983134 -999832.91167934518
 -8797.9280625725332 -8507.9764402267465 -999925.10259453848
 -3412.0658880067481 -6840.3957007617555 -999970.78296969901
 673.46841215431527 -5412.131015475522 -999985.12752848933
 3641.4588432277737 -4250.5728175492022 -999984.33608142869
 5755.6466823812389 -3329.4022835210467 -999977.89356150373
 7245.5811599055514 -2611.6647052232256 -999970.33994070196
 8287.1274662969754 -2061.1474498603379 -999963.53692999587
 9009.3946763653184 -1645.6763814274916 -999958.06039894139
 9506.2211995397556 -1338.1245788093736 -999953.91952885361
 9846.187808998613 -1116.5511505877591 -999950.90174425975
 10080.123893621032 -963.87918316250784 -999948.72970528319
 10246.467993365528 -867.31858131290642 -999947.12742831523
 10375.084914191202 -817.69696531214333 -999945.84302585921
 10490.049138671533 -808.83108439414718 -999944.65079890552
 10611.752829427132 -837.02894679366705 -999943.34343723161
 10758.5877253944 -900.76350825657869 -999941.71900929161
 10948.401274611308 -1000.5254071508984 -999939.56390295888
 11199.913740610637 -1138.8592044909428 -999936.63045810827
 11534.276663681901 -1320.6043113609505 -999932.60596207099
 11976.947795317539 -1553.369892133906 -999927.06722214818
 12560.077391848459 -1848.2469360897553 -999919.41097229125
 13325.684670586797 -2220.6981505899194 -999908.74314998568
 14330.066464454696 -2691.4868628944773 -999893.69689662068
 15650.077279912955 -3287.4249787264616 -999872.12578316347
 17391.993571353578 -4041.6388008756271 -999840.57915020501
 19703.080697319438 -4992.8967533696459 -999793.40845648979
 22782.890455376713 -6182.9208519406848 -999721.31686397328
 26879.609271097546 -7647.7744481412574 -999609.42280043731
 32215.090467629547 -9386.030452051551 -999436.8866409302
 38642.651603126775 -11232.81143508805 -999189.95662703842
 44438.977572802803 -12528.077198244151 -998933.5436123861
 0 0 0
 -0 -0 0
 -19182.930618444916 -9617.0294117890062 -999769.73744866916
 -13369.369713264208 -8139.6463253483807 -999877.49555191421
 -7055.1933744580338 -6511.0655150358461 -999953.91407419764
 -1936.5661183128846 -5100.8434116680437 -999985.11544330453
 1863.9728110710466 -3963.7686312975138 -999990.407025786
 4582.9423965245423 -3070.3690398078638 -999984.78462072078
 6491.2737154093847 -2376.5350557172947 -999976.10743791296
 7814.3040503211359 -1842.2955324805509 -999967.77078032878
 8721.8619969150332 -1434.8976416478242 -999960.93433296913
 9337.235264506955 -1128.1594914194973 -999955.7706687717
 9748.977189906951 -901.36772610058279 -999952.0713414083
 10020.970416528908 -738.347523809476 -999949.51622311666
 10199.968033656252 -626.71077799352145 -999947.78257952712
 10320.967158087573 -557.21888173676712 -999946.58214528614
 10410.986723348156 -523.23408868453407 -999945.667314747
 10491.753091609091 -520.26539421019106 -999944.82469833526
 10581.671734400248 -545.62452665719877 -999943.86368294759
 10697.35984693538 -598.20255547314241 -999942.60267577751
 10854.951315218317 -678.37148606900416 -999940.85317286209
 11071.35450649722 -788.01639444101113 -999938.40017250739
 11365.634025480431 -930.70987558610477 -999934.97595710016
 11760.698606715794 -1112.042309841007 -999930.22223062301
 12285.520610923941 -1340.1109843576919 -999923.63212690805
 12978.20564715776 -1626.1510380136588 -999914.4572467095
 13890.37856663648 -1985.2748022941821 -999901.55318773002
 15093.52004272152 -2437.2895219741167 -999883.11580529565
 16687.940281368996 -3007.5947120910514 -999856.22317571915
 18814.56749043669 -3728.173710793988 -999816.03946472565
 21667.254494722671 -4638.4095860356656 -999754.47747893236
 25494.346731227397 -5783.682600032952 -999658.23524859245
 30546.872742614763 -7202.050920552063 -999507.38818088989
 36809.508044466602 -8862.4948897198356 -999283.001107221
 42810.661334848999 -10424.10569932261 -999028.82105394849
 -0 0 -0
 -23120.654201687114 -8401.4737092353589 -999697.37950481742
 -18420.307477017126 -7864.9866168251356 -999799.3970082046
 -11771.285437534018 -6312.7147027792016 -999910.7892568364
 -5603.8418406736691 -4871.2926533128912 -999972.43335229519
 -765.87844304280839 -3727.3461607463314 -999992.76013419637
 2778.9050194878173 -2847.6083256986394 -999992.08437552943
 5291.1144046538893 -2175.6186349897566 -999983.63526205369
 7037.0417476080383 -1663.0402241782444 -999973.85682859481
 8232.9514188754456 -1272.794701242017 -999965.29865019955
 9040.6872106315132 -977.14817589069651 -999958.654723385
 9577.3124988343097 -755.33440387241978 -999953.85121276369
 9926.5595631530578 -591.69938799116483 -999950.55543115397
 10148.497378359743 -474.41418057225377 -999948.39013428427
 10286.808222723572 -394.59435750072714 -999947.01153205207
 10373.996670434528 -345.67666506896768 -999946.12889931479
 10435.049078108681 -322.95985981892113 -999945.50123877579
 10490.01357118313 -323.26320728866159 -999944.92604151729
 10555.866925381499 -344.68290914092358 -999944.22587819654
 10647.942223021093 -386.43885377580688 -999943.23438454641
 10781.127914820079 -448.80959491284978 -999941.78123070335
 10971.014700617878 -533.15786673595278 -999939.67446997925
 11235.157729649136 -642.05315192755745 -999936.67749440006
 11594.638446942461 -779.49984206128079 -999932.47608990117
 12076.159426415412 -951.27860275468174 -999926.62802954076
 12714.995152528167 -1165.4088704465873 -999918.48203762888
 13559.251900714004 -1432.7518779322645 -999907.04263443872
 14676.031577983433 -1767.8091664631206 -999890.73850489943
 16160.138514280738 -2189.8409445317152 -999867.01841786783
 18145.581491095447 -2724.5182704982913 -999831.64326427667
 20818.340389855064 -3406.3345389515539 -999777.47203486273
 24422.849811414413 -4281.5683742048632 -999692.54902662255
 29235.3617199004 -5409.3200913204173 -999557.91872270033
 35412.845073707598 -6845.6316710764149 -999349.32217458845
 42426.909175006345 -8504.6788214867229 -999063.37527506182
 48076.239356201899 -9478.8596088677095 -998798.69164405717
 -23011.802884677683 -5769.5610491920834 -999718.54493817221
 -17390.470153825529 -5333.3086150006111 -999834.54999667115
 -10488.299664430771 -4366.5641827157178 -999935.46226113383
 -4495.9526726221147 -3387.0922679608543 -999984.15688226477
 108.50856841811536 -2579.5908337500741 -999996.66696295596
 3451.6586078138967 -1954.0252659596781 -999992.13388811972
 5805.3686110121862 -1478.166950104431 -999982.05619788892
 7429.6178812515882 -1117.7725623207423 -999971.77528300136
 8532.1586435122099 -845.20461587209866 -999963.24327349127
 9267.6885332285801 -639.7303998838662 -999956.84941614699
 9747.8915171579156 -486.08330715613334 -999952.37003268721
 10052.532541520677 -373.01935476906868 -999949.40244297497
 10238.714101844098 -292.22564403724181 -999947.54029284639
 10347.846487505012 -237.56090733538969 -999946.43138414482
 10410.653791500248 -204.53531973324226 -999945.78675693041
 10450.697531426145 -189.95020090273422 -999945.37192790082
 10486.856608742746 -191.64671615680888 -999944.99304211931
 10535.111315480577 -208.33542122281494 -999944.48247186327
 10609.895755536028 -239.49267475695106 -999943.68479195645
 10725.22382067043 -285.31823698710042 -999942.44242731296
 10895.760883232213 -346.75372945000476 -999940.57931290427
 11138.005643264996 -425.56551776896833 -999937.87993268901
 11471.76497613456 -524.4985178416099 -999934.05958074913
 11922.153114618641 -647.51072605678576 -999928.71895699215
 12522.429654980653 -800.10557180776414 -999921.2711941927
 13318.107013683335 -989.79652752438687 -999910.82018768357
 14372.882928354078 -1226.7717328928954 -999895.95222075132
 15776.999332602956 -1524.8740797653529 -999874.37263443251
 17658.329886625121 -1903.0428431553089 -999842.26846715785
 20195.088486680106 -2387.2464006643604 -999793.20834642486
 23624.280824985792 -3012.198047187369 -999716.36978616426
 28224.975597015782 -3818.9237223418991 -999594.30099123251
 34208.516080178539 -4830.7176038031412 -999403.04261845455
 41308.77474375935 -5942.9364395456905 -999128.75378283695
 47517.729660398858 -6667.0196845106302 -998848.14472293411
 -22849.066933520164 -3331.4380452077125 -999733.37528604013
 -16798.136889500631 -3114.1956459504522 -999854.05154078372
 -9714.9405096805131 -2632.6728697043959 -999949.34319917148
 -3782.3020704360652 -2087.6420393708072 -999990.66792733793
 690.18710902346902 -1603.7138972525931 -999998.47587058367
 3904.2615670415194 -1214.7817979595438 -999991.64048845903
 6151.7809657821435 -914.62912174339169 -999980.65933522861
 7693.3986932701082 -686.52835722511043 -999970.16970275715
 8732.5617005168497 -514.19669015734632 -999961.73825197457
 9419.337412021534 -384.57909694212549 -999955.56310349947
 9861.639351428541 -287.8682880531083 -999951.33141625999
 10136.398942091733 -216.84757387132308 -999948.60187592462
 10298.623240167271 -166.22935194400904 -999946.95395663846
 10388.154660852379 -132.14682818937527 -999946.03293375683
 10434.516799994642 -111.79581767066512 -999945.55269816855
 10460.326114763644 -103.18906393959243 -999945.28396787285
 10483.692339327315 -104.98960190160628 -999945.03907570732
 10519.941483835435 -116.40115145137669 -999944.65710955649
 10582.916593101634 -137.10321829392399 -999943.98997098382
 10686.055592344881 -167.22519975280247 -999942.88849494292
 10843.414436173713 -207.35819221553155 -999941.18695348559
 11070.797058418282 -258.60635685959437 -999938.68340775953
 11387.172139294595 -322.68250937950069 -999935.11198810698
 11816.603293866701 -402.05640231334615 -999930.10067566461
 12390.997194629696 -500.17118561747918 -999923.10355212202
 13154.082135961806 -621.75620923493796 -999913.28801170387
 14167.149298353466 -773.28216730988322 -999899.34189169656
 15517.151724719268 -963.6146777442309 -999879.13742067094
 17327.550475910237 -1204.872774165766 -999849.14075879613
 19771.204864623724 -1513.2239910945545 -999803.38547704171
 23080.795138125537 -1908.3659508726405 -999731.78154702543
 27540.0951150562 -2407.4867320183353 -999617.80054613319
 33399.877918045881 -3002.304191713285 -999437.55899235653
 40520.036692988826 -3600.9908053361423 -999172.23715014162
 46983.148817286732 -3971.4995778451525 -998887.78695022385
 -22735.695028586753 -1495.6314248022306 -999740.39193092939
 -16518.734645194971 -1410.9112667069046 -999862.56092280953
 -9332.9288373775289 -1218.4729962353586 -999955.70490040898
 -3403.8798663103703 -984.16576875039993 -999993.72249009414
 1012.8616007437219 -763.83730707064365 -999999.19533164927
 4161.1112332745397 -580.58430221145568 -999991.17399863701
 6350.2074773189761 -436.72870106844312 -999979.74186132231
 7844.8753199901048 -326.65358486343263 -999969.17513923871
 8847.609639403805 -243.34621828920399 -999960.82952598028
 9506.301178644846 -180.71137599525633 -999954.79776902881
 9926.7940316418772 -134.02757088687403 -999950.71918413241
 10184.378291275712 -99.789548715500018 -999948.13289533474
 10332.830099959747 -75.431428351607622 -999946.61204097548
 10411.07508451976 -59.085047806515767 -999945.80154353438
 10447.942706268321 -49.401866981681991 -999945.41753670841
 10465.508751205196 -45.42959323470798 -999945.23403170961
 10481.445866704309 -46.529125428695444 -999945.06705497764
 10510.709239949003 -52.320696023147775 -999944.75960115809
 10566.806923726597 -62.652439191720312 -999944.16777443571
 10662.850176360944 -77.58802177862438 -999943.14718698652
 10812.549292326485 -97.412364413362994 -999941.53793540958
 11031.314264656665 -122.65624480033206 -999939.14567889576
 11337.637931490868 -154.14224230712239 -999935.71503687347
 11754.98440197729 -193.05677007815677 -999930.88914724137
 12314.480565281487 -241.05678524386192 -999924.1448530152
 13058.813340085788 -300.42564238810701 -999914.68492996052
 14047.857124588478 -374.29818517053388 -999901.25393014471
 15366.641957880785 -466.96887451673473 -999881.81714391056
 17136.154361506633 -584.24019174232649 -999852.99463325948
 19526.625381331578 -733.5556301045998 -999809.0681711958
 22769.797330628662 -923.04374555577863 -999740.30844002974
 27155.751862729419 -1157.1813138267944 -999630.54478751135
 32960.633555062064 -1424.8656519508102 -999455.63503015123
 40095.703547554636 -1678.6378787940992 -999194.43389757664