# ODT 1.0
# Table Start
# Title: mmArchive Data Table, Wed Mar 11 14:48:49 CET 2015
# Columns: {Oxs_RungeKuttaEvolve:evolve:Total energy} {Oxs_RungeKuttaEvolve:evolve:Energy calc count} {Oxs_RungeKuttaEvolve:evolve:Max dm/dt} Oxs_RungeKuttaEvolve:evolve:dE/dt {Oxs_RungeKuttaEvolve:evolve:Delta E} Oxs_MR::magnetoresistance Oxs_Exchange6Ngbr::Energy {Oxs_Exchange6Ngbr::Max Spin Ang} {Oxs_Exchange6Ngbr::Stage Max Spin Ang} {Oxs_Exchange6Ngbr::Run Max Spin Ang} Oxs_TwoSurfaceExchange:FF:Energy Oxs_UniaxialAnisotropy:xx:Energy Oxs_UniaxialAnisotropy:yy:Energy Oxs_UZeeman::Energy  Oxs_UZeeman::B       Oxs_UZeeman::Bx      Oxs_UZeeman::By      Oxs_UZeeman::Bz      Oxs_Demag::Energy    Oxs_MR::Energy       Oxs_TimeDriver::Iteration {Oxs_TimeDriver::Stage iteration} Oxs_TimeDriver::Stage Oxs_TimeDriver::mx   Oxs_TimeDriver::my   Oxs_TimeDriver::mz   {Oxs_TimeDriver::Last time step} {Oxs_TimeDriver::Simulation time}
# Units:                       J                                            {}                                        deg/ns                                 J/s                                  J                              Ohm                        J                            deg                                  deg                                    deg                                 J                                J                                J                          J                 mT                   mT                   mT                   mT                     J                  J                         {}                            {}                          {}                   {}                   {}                   {}                          s                                 s                
                      -1.7264193774657708e-15                          1                                           7247.6207084314328                  -5.0974387555543074e-06                 0                               163.65522155784285        0                             0                                    0                                      0                                   0                                1.3887375104199291e-28              2.2744972799993057e-16       -2.4308689818700281e-15  300.00000171173696  -300.00000171173696   0                    0                    4.7699987640418788e-16  0                      0                             0                           0                    -0.99999999999999989  0                    0                          0                                0                         
                      -1.7652557401003687e-15                          6457                                        22.573222524271976                  -1.3846902614212882e-11                -1.4373383256616693e-24             163.70222746476591        3.5710581180902911e-18           9.3293407247444122                   9.7261392704367005                     9.7261392704367005                  0                                3.935674190007956e-18              2.2384993755986043e-16       -2.4090945082621744e-15  300.00000171173696  -300.00000171173696   0                    0                    4.1248209829384702e-16  0                      1000                          1000                        0                    -0.99104251452043857 -1.8013665896785113e-07 -1.3016121481528918e-08        1.0258033209314426e-13              1.2192279181115217e-10       
                      -1.7652559568325092e-15                          8365                                        7.498175649538295                   -1.9552000881733784e-12                -2.199246707955002e-25             163.70157598635652        3.5688853552962063e-18           9.2949545891008309                   9.7261392704367005                     9.7261392704367005                  0                                3.9297650646768126e-18              2.2385541116858812e-16       -2.4091307540794841e-15  300.00000171173696  -300.00000171173696   0                    0                    4.1252073565841374e-16  0                      1296                          1296                        0                    -0.99105742516247941 -1.8016311569673022e-07 -1.300204103288879e-08        1.1216840430109083e-13              1.5799677173839456e-10       
                      -1.6849699279525232e-15                          12902                                       16.840090077092281                  -7.6545818332953809e-12                -7.3023993749089603e-25             163.70728609766269        3.6267409834000109e-18           9.3928410971495353                   9.3928410971495353                     9.7261392704367005                  0                                4.1193467632443961e-18              2.2366623357742063e-16       -2.3277656365758841e-15  290.00000165467907  -290.00000165467907   0                    0                    4.1138338729929581e-16  0                      2000                          703                         1                    -0.99060600760761452 -1.861125418554105e-07 -1.3064929235337449e-08        9.4849464309359506e-14              2.438675381851247e-10       
                      -1.6849700496000213e-15                          14606                                       7.4815153952748608                  -1.6499222205162028e-12                -1.8758995088509967e-25             163.70777831989159        3.6276953571743005e-18           9.4057773570134948                   9.4057773570134948                     9.7261392704367005                  0                                4.1236425963534788e-18              2.2366223990090025e-16       -2.327740025991327e-15  290.00000165467907  -290.00000165467907   0                    0                    4.1135639853687754e-16  0                      2265                          968                         1                    -0.99059510874454071 -1.8621362712866547e-07 -1.3057589438978808e-08        1.2549795279936107e-13              2.762536008858892e-10       
                      -1.6047247137621789e-15                          19341                                       19.487632316579568                  -1.0492052110634676e-11                -1.4516173770197666e-24             163.71520724233409        3.6860412408071302e-18           9.5304492878598968                   9.5304492878598968                     9.7261392704367005                  0                                4.3364565234471783e-18              2.2345016133168209e-16       -2.2463151493804396e-15  280.00000159762118  -280.00000159762118   0                    0                    4.1011777652232425e-16  0                      3000                          734                         2                    -0.99008471843991763 -1.9282313658661176e-07 -1.3107615589630893e-08        1.3986358411812149e-13              3.6586071564479199e-10       
                      -1.6047249061207038e-15                          21627                                       7.4899088390371364                  -1.4178330728895872e-12                -1.5942265362069385e-25             163.7159427337298         3.6870065288823652e-18           9.5464079267061699                   9.5464079267061699                     9.7261392704367005                  0                                4.3427710586668753e-18              2.2344422681292997e-16       -2.2462786761177016e-15  280.00000159762118  -280.00000159762118   0                    0                    4.1007976559651856e-16  0                      3353                          1087                        2                    -0.99006864250320836 -1.9302726152724431e-07 -1.3091672322836955e-08        1.1219584897723578e-13              4.0891119675803222e-10       
                      -1.5245241540113615e-15                          25786                                       28.189106695641737                  -2.1822746528697556e-11                -2.0556893253288598e-24             163.72411072592325        3.7440468811811307e-18           9.6573277267045956                   9.6573277267045956                     9.7261392704367005                  0                                4.5707903165014474e-18              2.2321660003538778e-16       -2.1648525643519437e-15  270.00000154056323  -270.00000154056323   0                    0                    4.087969731075119e-16  0                      4000                          646                         3                    -0.98951928553482316 -2.0013327139961923e-07 -1.3145806081904078e-08        9.3581762670689064e-14              4.878787449230884e-10       
                      -1.5245246265326149e-15                          29116                                       7.4880288151345162                  -1.5917120286296437e-12                -2.1755522101729047e-25             163.72552646752209        3.7457703600648857e-18           9.6871143684501213                   9.6871143684501213                     9.7261392704367005                  0                                4.5830177816524271e-18              2.2320497131088788e-16       -2.1647842328118573e-15  270.00000154056323  -270.00000154056323   0                    0                    4.0872584682663715e-16  0                      4516                          1162                        3                    -0.98948805228697467 -2.0050787460059303e-07 -1.312213791575827e-08        1.5212692740292007e-13              5.5089155558534686e-10       
                      -1.4443725232733217e-15                          32237                                       44.212908997378712                  -5.6350341206260776e-11                -6.408454979202163e-24             163.73376656683072        3.8010761832781571e-18           9.7629370117941345                   9.7629370117941345                     9.7629370117941345                  0                                4.8204267735577538e-18              2.2296755392554354e-16       -2.0833978341446897e-15  260.00000148350534  -260.00000148350534   0                    0                    4.0743625398898857e-16  0                      5000                          483                         4                    -0.9889140861923349  -2.0808553947102038e-07 -1.3167533206689846e-08        1.1359106061586682e-13              6.0984043147053335e-10       
                      -1.4443740073459527e-15                          37031                                       7.4939153475587714                  -1.7076906246569132e-12                -2.167473923454558e-25             163.73680935803566        3.8044847420494062e-18           9.8183219316662029                   9.8183219316662029                     9.8183219316662029                  0                                4.8478149852349799e-18              2.2294104634292416e-16       -2.0832507219814403e-15  260.00000148350534  -260.00000148350534   0                    0                    4.0728336856527897e-16  0                      5744                          1227                        4                    -0.98884425733481329 -2.0869422059576958e-07 -1.3153670642026278e-08        1.304112231502999e-13              7.0066067918947867e-10       
                      -1.3642737323953135e-15                          38676                                       50.249399808305753                  -1.7912607572946662e-10                -2.4314439210059521e-23             163.74358281668202        3.8627415925790881e-18           9.8684403588325171                   9.8759284118761919                     9.8759284118761919                  0                                5.0973734858838181e-18              2.226907467461582e-16       -2.0019038770218475e-15  250.00000142644745  -250.00000142644745   0                    0                    4.0597928280191292e-16  0                      6000                          255                         5                    -0.98824110651089769 -2.1670743782224308e-07 -1.3370436672837394e-08        1.3929484092313025e-13              7.3183058425141485e-10       
                      -1.3642786815447484e-15                          45126                                       8.8017934378797946                  -2.3360553536036319e-12                -2.2025436578458335e-25             163.75009231213204        3.8637496477247272e-18           9.9220391407726503                   9.9220391407726503                     9.9220391407726503                  0                                5.1410119483163597e-18              2.2264860393978493e-16       -2.0016727488790716e-15  250.00000142644745  -250.00000142644745   0                    0                    4.0574070179849714e-16  0                      7000                          1255                        5                    -0.98812700995800007 -2.1763179407511803e-07 -1.3189252327849245e-08        9.3917361058207592e-14              8.5384509284012903e-10       
                      -1.3642786995488583e-15                          45612                                       7.4955889356109564                  -1.7219596767954301e-12                -2.5224972207130042e-25             163.75021399225631        3.8638848976472946e-18           9.9225706501994786                   9.9225706501994786                     9.9225706501994786                  0                                5.1420505805937834e-18              2.2264760317447353e-16       -2.0016673480462331e-15  250.00000142644745  -250.00000142644745   0                    0                    4.0573510984466008e-16  0                      7074                          1329                        5                    -0.98812434383348768 -2.1768642626710696e-07 -1.3185730654930512e-08        1.521354660206213e-13              8.6293379784248767e-10       
                      -1.284244999580641e-15                          51571                                       22.425824828251095                  -1.4819537185446007e-11                -1.4973146164716448e-24             163.76468038535231        3.9232036945089888e-18           9.9715279558148211                   9.9747400911991377                     9.9747400911991377                  0                                5.45831257406764e-18              2.2233168328776424e-16       -1.9200888450571283e-15  240.00000136938957  -240.00000136938957   0                    0                    4.0413064592014649e-16  0                      8000                          925                         6                    -0.98734694227535602 -2.2705004901445489e-07 -1.3245101772055865e-08        9.9761129828818289e-14              9.7590837428495726e-10       
                      -1.2842453829032473e-15                          54985                                       7.4996703637235802                  -1.6331817642887093e-12                -2.2222484996067013e-25             163.7661579429865         3.9250140332430658e-18           9.9634985687886992                   9.9747400911991377                     9.9747400911991377                  0                                5.4709035747507242e-18              2.2231947514817493e-16       -1.9200258325507187e-15  240.00000136938957  -240.00000136938957   0                    0                    4.0406505689130273e-16  0                      8529                          1454                        6                    -0.98731454002186936 -2.2751338709266369e-07 -1.3220089113848164e-08        1.377380314212375e-13              1.0404821870677396e-09       
                      -1.2042784643577712e-15                          58028                                       57.784447411638823                  -1.0509618951324774e-10                -1.470864606127235e-23             163.77880026989294        3.9805771643323166e-18           9.9728263111973376                   10.006897359651877                     10.006897359651877                  0                                5.7834590022593223e-18              2.2200642049618105e-16       -1.8385907236319456e-15  230.00000131233165  -230.00000131233165   0                    0                    4.025418026114017e-16  0                      9000                          470                         7                    -0.98654507146167103 -2.3711980553020867e-07 -1.3281702740353218e-08        1.4003712988353752e-13              1.0978922872890964e-09       
                      -1.2042819731512602e-15                          64472                                       8.8108695579354563                  -2.5263932006957255e-12                -2.3886350596000443e-25             163.78491143962191        3.9890973852793639e-18           9.8828303106130431                   10.006897359651877                     10.006897359651877                  0                                5.8388269418878897e-18              2.2195219829171699e-16       -1.8383256828640088e-15  230.00000131233165  -230.00000131233165   0                    0                    4.0226358709386448e-16  0                      10000                         1470                        7                    -0.98640285674255868 -2.3794815422763069e-07 -1.3261798001002045e-08        9.4200164864383937e-14              1.219957264098402e-09       
                      -1.2042819939519288e-15                          64970                                       7.4870551989149234                  -1.878365600518402e-12                -2.1410038160885105e-25             163.78505317323484        3.9893232631871033e-18           9.8794424173864055                   10.006897359651877                     10.006897359651877                  0                                5.8400398224695352e-18              2.2195101732018544e-16       -1.8383198567139682e-15  230.00000131233165  -230.00000131233165   0                    0                    4.0225748235619733e-16  0                      10078                         1548                        7                    -0.98639973056580377 -2.379911417450625e-07 -1.325933989389078e-08        1.1412691751164802e-13              1.2294999244292033e-09       
                      -1.1243970268860842e-15                          70911                                       28.726072455884434                  -2.8747094471351802e-11                -4.2076751084616332e-24             163.80471805345306        4.0533468533715216e-18           9.692887707372023                    9.9098065351697926                     10.006897359651877                  0                                6.2331306161905794e-18              2.2155811075589243e-16       -1.7566487838959537e-15  220.00000125527379  -220.00000125527379   0                    0                    4.0040716878441494e-16  0                      11000                         921                         8                    -0.98542133604231263 -2.4854864408371506e-07 -1.3323850200745656e-08        1.5304900995040799e-13              1.3420351231942045e-09       
                      -1.1243979371016673e-15                          76041                                       7.4977435348380554                  -1.8531063961869925e-12                -2.8085078861494605e-25             163.80755923761245        4.0585311627507507e-18           9.5693647252972642                   9.9098065351697926                     10.006897359651877                  0                                6.2578539696109676e-18              2.215339386088686e-16       -1.7565350776376859e-15  220.00000125527379  -220.00000125527379   0                    0                    4.002868167947883e-16  0                      11796                         1717                        8                    -0.98535755062659069 -2.4883642972484761e-07 -1.3302642914150587e-08        1.5545311838750821e-13              1.4392048920770042e-09       
                      -1.0445901030750079e-15                          77356                                       47.973284818820026                  -5.1093100114014824e-10                -5.5338818429088675e-23             163.81809975952615        4.1182324420542689e-18           9.5560179041023368                   9.5886489608608336                     10.006897359651877                  0                                6.587818385491856e-18              2.2120149745689255e-16       -1.6753003029113357e-15  210.00000119821587  -210.00000119821587   0                    0                    3.9880265155188919e-16  0                      12000                         203                         9                    -0.98453934163702317 -2.5828476747380592e-07 -1.4012839154277424e-08        1.0781603930035914e-13              1.4640303669857437e-09       
                      -1.0446037019459634e-15                          83812                                       23.049953829111224                  -1.5692637839894611e-11                -2.3120333641694749e-24             163.83212607633325        4.1290309052885227e-18           9.1595869538511412                   9.5886489608608336                     10.006897359651877                  0                                6.7139478600070649e-18              2.2107834475007497e-16       -1.6747464142069001e-15  210.00000119821587  -210.00000119821587   0                    0                    3.9822138874556619e-16  0                      13000                         1203                        9                    -0.984213832700227   -2.5992930262383948e-07 -1.3361099612399988e-08        1.5352695959622168e-13              1.5861517436494655e-09       
                      -1.0446043450781927e-15                          90256                                       8.1007295478815049                  -1.3780252362467539e-12                -1.5864341953151724e-25             163.83449473659363        4.1341724712997653e-18           9.2915078207888246                   9.5886489608608336                     10.006897359651877                  0                                6.7346389337899149e-18              2.2105804322593554e-16       -1.6746552797107341e-15  210.00000119821587  -210.00000119821587   0                    0                    3.9812408000151605e-16  0                      14000                         2203                        9                    -0.98416027484155899 -2.5999466197836949e-07 -1.3360033937525457e-08        1.150851752379529e-13              1.7082103034226456e-09       
                      -1.0446043580548558e-15                          90790                                       7.4966061599048288                  -1.1934464372991255e-12                -1.6121957810321984e-25             163.83457185250845        4.1343348726137853e-18           9.297314304225111                    9.5886489608608336                     10.006897359651877                  0                                6.7352973451897178e-18              2.2105739596781665e-16       -1.6746523659176437e-15  210.00000119821587  -210.00000119821587   0                    0                    3.9812097967716772e-16  0                      14083                         2286                        9                    -0.98415856246563871 -2.6000134969656964e-07 -1.3360191526934764e-08        1.3653964600651159e-13              1.718377692501752e-09       
                      -9.64912315565994e-16                          96695                                       41.525002420802338                  -4.8808201549922492e-11                -7.0465668073783879e-24             163.86076066464855        4.204089616656456e-18           9.5215223706136509                   9.5215223706136509                     10.006897359651877                  0                                7.2284959578640071e-18              2.2056442278757071e-16       -1.5928918174705441e-15  200.00000114115795  -200.00000114115795   0                    0                    3.959824935424589e-16  0                      15000                         916                         10                   -0.98291505795913958 -2.7172009886694546e-07 -1.3418968447238833e-08        1.5297972305870549e-13              1.8303400985652339e-09       
                      -9.6491445762269797e-16                          103145                                      16.76112640477421                   -5.4341550463283661e-12                -5.5930511154111101e-25             163.86529322246102        4.2160386520082396e-18           9.6768177769294095                   9.6768177769294095                     10.006897359651877                  0                                7.2700052187539606e-18              2.2052359977278001e-16       -1.5927181218051716e-15  200.00000114115795  -200.00000114115795   0                    0                    3.9579402053893156e-16  0                      16000                         1916                        10                   -0.98280787674121939 -2.7127278484014404e-07 -1.3413958351833783e-08        1.0187258651836256e-13              1.9524399770164938e-09       
                      -9.6491478753957287e-16                          109577                                      7.4977445919926735                  -1.189103692215258e-12                -1.6220647416024584e-25             163.86642427121384        4.2197528732651009e-18           9.7231177456567099                   9.7231177456567099                     10.006897359651877                  0                                7.2801069924193409e-18              2.2051363104382407e-16       -1.5926756775002308e-15  200.00000114115795  -200.00000114115795   0                    0                    3.9574739905114947e-16  0                      16997                         2913                        10                   -0.98278168591896919 -2.7076251314678147e-07 -1.3426204444994793e-08        1.380795516079738e-13              2.0741940734047705e-09       
                      -8.8528157135649866e-16                          109590                                      74.573181407051493                  -1.8192880359561934e-09                -3.7319912087045723e-22             163.86650652698901        4.2214398362783889e-18           9.7253552221265274                   9.7253552221265274                     10.006897359651877                  0                                7.2830682326222462e-18              2.2051013264260077e-16       -1.5130303270563267e-15  190.00000108410006  -190.00000108410006   0                    0                    3.9573411498832661e-16  0                      17000                         2                           11                   -0.98277417296633829 -2.7081743028996646e-07 -1.3544879844542431e-08        2.0495658254112853e-13              2.074505355057385e-09       
                      -8.853422100636591e-16                          116034                                      41.638756200183501                  -4.3773055556725155e-11                -4.1186832844343634e-24             163.89762269661199        4.2965308677423468e-18           9.7422819285268858                   9.7595585293250533                     10.006897359651877                  0                                7.8463106133980463e-18              2.1994799292000951e-16       -1.5108291813423161e-15  190.00000108410006  -190.00000108410006   0                    0                    3.933961368775071e-16  0                      18000                         1002                        11                   -0.98134444011830657 -2.823479432653285e-07 -1.3430565862388764e-08        9.3703679601824744e-14              2.1966060728245319e-09       
                      -8.8534426193993393e-16                          122484                                      15.037214777960049                  -5.4637363472794254e-12                -7.4408509505509144e-25             163.901941158287          4.3111189618949353e-18           9.6739105443286206                   9.7595585293250533                     10.006897359651877                  0                                7.8881651938932694e-18              2.199068072892118e-16       -1.5106632844787254e-15  190.00000108410006  -190.00000108410006   0                    0                    3.9321293109379144e-16  0                      19000                         2002                        11                   -0.98123668341970138 -2.8020917640526203e-07 -1.3441904845403244e-08        1.5588613883883362e-13              2.318787108853972e-09       
                      -8.8534449827503107e-16                          127080                                      7.499779695295425                   -1.3305064780113572e-12                -1.6460542773775788e-25             163.90277129855812        4.3147922447307403e-18           9.6370258960008766                   9.7595585293250533                     10.006897359651877                  0                                7.8961823553032328e-18              2.1989890227687642e-16       -1.5106314595461216e-15  190.00000108410006  -190.00000108410006   0                    0                    3.9317708439418011e-16  0                      19713                         2715                        11                   -0.98121601184343865 -2.7900462850086345e-07 -1.3474960105183012e-08        1.237907873468544e-13              2.4057895871749477e-09       