# ODT 1.0
# Table Start
# Title: mmArchive Data Table, Fri Mar 06 13:59:54 CET 2015
# Columns: {Oxs_CGEvolve:evolve:Max mxHxm} {Oxs_CGEvolve:evolve:Total energy} {Oxs_CGEvolve:evolve:Delta E} {Oxs_CGEvolve:evolve:Bracket count} {Oxs_CGEvolve:evolve:Line min count} {Oxs_CGEvolve:evolve:Conjugate cycle count} {Oxs_CGEvolve:evolve:Cycle count} {Oxs_CGEvolve:evolve:Cycle sub count} {Oxs_CGEvolve:evolve:Energy calc count} Oxs_MR::magnetoresistance Oxs_Exchange6Ngbr::Energy {Oxs_Exchange6Ngbr::Max Spin Ang} {Oxs_Exchange6Ngbr::Stage Max Spin Ang} {Oxs_Exchange6Ngbr::Run Max Spin Ang} Oxs_TwoSurfaceExchange:FF:Energy Oxs_UniaxialAnisotropy:xx:Energy Oxs_UniaxialAnisotropy:yy:Energy Oxs_UZeeman::Energy  Oxs_UZeeman::B       Oxs_UZeeman::Bx      Oxs_UZeeman::By      Oxs_UZeeman::Bz      Oxs_Demag::Energy    Oxs_MR::Energy       Oxs_MinDriver::Iteration {Oxs_MinDriver::Stage iteration} Oxs_MinDriver::Stage Oxs_MinDriver::mx    Oxs_MinDriver::my    Oxs_MinDriver::mz   
# Units:                 A/m                               J                                J                               {}                                   {}                                      {}                                     {}                                  {}                                     {}                               Ohm                        J                            deg                                  deg                                    deg                                 J                                J                                J                          J                 mT                   mT                   mT                   mT                     J                  J                         {}                           {}                         {}                 {}                   {}                   {}           
                 895454.98047754995                6.9489751788217255e-17             6.9489751788217255e-17              0                                    0                                       1                                      1                                   1                                      1                                2593.6034097721022        0                             0                                    0                                      0                                   0                                4.5289462239755855e-31              3.3854975999999769e-17        0                    0                    0                    0                    0                    3.5634775788217031e-17  0                      0                            0                          0                    0.096774193548387094  0                    0                  
                 66.705689173090249                5.2728413054286562e-17            -6.5259134681990406e-28              1061                                 353                                     50                                     678                                 7                                      1415                             2585.2899067427929        4.1404769735362597e-18           13.82654681804609                    18.306341186569128                     18.306341186569128                  0                                3.8531504833421057e-18              3.0445068812338822e-17        0                    0                    0                    0                    0                    1.4289716785069369e-17  0                      1000                         1000                       0                    0.093405722775200956  1.7208201664036278e-07 -9.8812940864312501e-11
                 62.831491119522674                5.2728412422058371e-17            -3.4619160825624103e-27              2106                                 781                                     100                                    1312                                4                                      2888                             2585.2899428265014        4.1405658341518129e-18           13.826877756065638                   18.306341186569128                     18.306341186569128                  0                                3.8535716498410183e-18              3.0444644622733796e-17        0                    0                    0                    0                    0                    1.4289630315331738e-17  0                      2000                         2000                       0                    0.093405533754422065  5.2612003428660593e-06 -7.2401497179502016e-10
                 3953.9404592331093                5.2727983089086721e-17            -4.4316762902676504e-25              3158                                 1207                                    153                                    1942                                9                                      4366                             2585.2902835508235        4.1411510994163574e-18           13.818400802749197                   18.306341186569128                     18.306341186569128                  0                                3.853876932848014e-18              3.0444308535584773e-17        0                    0                    0                    0                    0                    1.428864652123758e-17  0                      3000                         3000                       0                    0.093405504187967447  0.00014163261456943247 -4.246308795360138e-07
                 48360.365973780819                5.2641946700637616e-17            -3.2510725144870437e-22              4189                                 1574                                    203                                    2563                                7                                      5764                             2585.3541236509377        4.2155408992302189e-18           17.64829284539109                    18.306341186569128                     18.306341186569128                  0                                3.9255368868930873e-18              3.0365872776008544e-17        0                    0                    0                    0                    0                    1.4134996138505763e-17  0                      4000                         4000                       0                    0.093325120569960757  0.0027297824897974782 -4.0109101043881749e-05
                 53760.468936170597                5.2306278048612988e-17            -7.9474977648724912e-22              5241                                 1968                                    257                                    3216                                4                                      7210                             2585.4601589531053        4.0730507580847404e-18           15.120105885082648                   18.306341186569128                     18.306341186569128                  0                                4.4959274526692337e-18              2.9789210606181803e-17        0                    0                    0                    0                    0                    1.3948089231677214e-17  0                      5000                         5000                       0                    0.09225935755736385  0.013170042307475779 -5.6520501427903343e-05
                 72047.616962972854                5.1396061574596992e-17            -5.6937216013381568e-23              6269                                 2377                                    306                                    3872                                10                                     8647                             2585.7550396932343        3.914987033662911e-18           12.127483053864429                   18.306341186569128                     18.306341186569128                  0                                7.2530966777716397e-18              2.7012184417223778e-17        0                    0                    0                    0                    0                    1.3215793445938665e-17  0                      6000                         6000                       0                    0.087375888063835186  0.031344244990188508 -1.2796547354545404e-05
                 31702.520661823601                5.1117981109152952e-17            -1.8494045429270191e-22              7305                                 2771                                    362                                    4533                                5                                      10077                            2585.8364326080127        3.7045850606713815e-18           12.375499128986347                   18.306341186569128                     18.306341186569128                  0                                1.0109835685829987e-17              2.4153386013321374e-17        0                    0                    0                    0                    0                    1.3150174349330211e-17  0                      7000                         7000                       0                    0.08186523126619985  0.044300068431871883 -7.4781006800256629e-06
                 39224.848027794957                5.0939767669296959e-17            -1.1499495748178147e-22              8350                                 3150                                    414                                    5181                                11                                     11501                            2585.8933211846506        3.6518464792912816e-18           11.469071271104408                   18.306341186569128                     18.306341186569128                  0                                1.2641466774247736e-17              2.1618408040359503e-17        0                    0                    0                    0                    0                    1.3028046375398437e-17  0                      8000                         8000                       0                    0.076759226257795465  0.052749148401480435 -8.9663385917501461e-07
                 9190.1440998151775                5.0851079173521424e-17            -1.41502736476305e-23              9364                                 3505                                    470                                    5815                                4                                      12870                            2585.916643564849         3.6419586205258359e-18           10.954984460191735                   18.306341186569128                     18.306341186569128                  0                                1.4658230159774805e-17              1.9599863136555981e-17        0                    0                    0                    0                    0                    1.2951027256664806e-17  0                      9000                         9000                       0                    0.072274897352631443  0.058860307504546794 -3.4099903982802109e-07
                 13038.426398773867                5.0826893719738689e-17            -2.4335777874544737e-23              10333                                3841                                    529                                    6421                                1                                      14175                            2585.9200820233982        3.6374828237214779e-18           10.908169858488058                   18.306341186569128                     18.306341186569128                  0                                1.5719684685439401e-17              1.853802042708825e-17        0                    0                    0                    0                    0                    1.2931705783489562e-17  0                      10000                        10000                      0                    0.069675698297568783  0.061981379934002177  4.9289415340941173e-08
                 4888.1124817020318                5.0818499283740138e-17            -7.8753146012415579e-24              11323                                4211                                    580                                    7042                                5                                      15535                            2585.9236510751161        3.6348316066721884e-18           10.87310517638989                    18.306341186569128                     18.306341186569128                  0                                1.6395842195410915e-17              1.7861698451556926e-17        0                    0                    0                    0                    0                    1.2926127030100103e-17  0                      11000                        11000                      0                    0.067929345434215832  0.06391909488340429 -1.4811693593244036e-08
                 2066.3000900388097                5.08161267903526e-17            -1.2410203591129627e-24              12349                                4609                                    630                                    7705                                1                                      16959                            2585.9244852246798        3.633959001601323e-18           10.830538163576279                   18.306341186569128                     18.306341186569128                  0                                1.6779339620321256e-17              1.7478158065067832e-17        0                    0                    0                    0                    0                    1.2924670103362194e-17  0                      12000                        12000                      0                    0.066908283386192091  0.064995295465319777 -1.3985272913480995e-10
                 1271.0601831770077                5.0815590439448179e-17            -3.1691291249944674e-26              13376                                5024                                    685                                    8359                                10                                     18401                            2585.9246322829181        3.633846955425249e-18           10.829049865067656                   18.306341186569128                     18.306341186569128                  0                                1.6959805444780046e-17              1.7297683844616781e-17        0                    0                    0                    0                    0                    1.2924254194626101e-17  0                      13000                        13000                      0                    0.066420534686449956  0.065495497291683316  5.0661847971250873e-10
                 493.28349964363906                5.0815465476361795e-17            -2.1502511709529814e-26              14407                                5425                                    739                                    9021                                1                                      19833                            2585.9246596156831        3.6338950827302919e-18           10.830171630632666                   18.306341186569128                     18.306341186569128                  0                                1.7047236426934777e-17              1.7210249857166815e-17        0                    0                    0                    0                    0                    1.2924084109529906e-17  0                      14000                        14000                      0                    0.066182642424611152  0.065736435875387536  1.1707526977382315e-09
                 235.18044794728451                5.0815437133082903e-17            -1.5775098040737455e-26              15422                                5847                                    798                                    9668                                8                                      21270                            2585.9246603701185        3.63386896284989e-18           10.828548585502899                   18.306341186569128                     18.306341186569128                  0                                1.7087323717027157e-17              1.7170162453706541e-17        0                    0                    0                    0                    0                    1.2924081999499309e-17  0                      15000                        15000                      0                    0.066073234403997205  0.065846452633735078  2.440550002502122e-10
                 150.18097798806033                5.0815429604365273e-17            -1.0553171648868747e-26              16460                                6249                                    851                                    10334                               14                                     22710                            2585.9246827776929        3.6338405327447358e-18           10.827140480839139                   18.306341186569128                     18.306341186569128                  0                                1.7108818013191733e-17              1.7148668104370577e-17        0                    0                    0                    0                    0                    1.2924102954058231e-17  0                      16000                        16000                      0                    0.066014467211313044  0.065905364977278016 -4.3773573552998043e-11
                 73.26678269961451                 5.0815427853734514e-17            -1.2120724549204406e-28              17495                                6648                                    904                                    10998                               6                                      24144                            2585.9246883245128        3.633843333765575e-18           10.827109997740241                   18.306341186569128                     18.306341186569128                  0                                1.71191419316616e-17              1.7138344072976247e-17        0                    0                    0                    0                    0                    1.2924098515331093e-17  0                      17000                        17000                      0                    0.065986226154933131  0.065933655561821625 -2.3511649227706976e-10
                 17.80375870816701                 5.081542745760011e-17            -9.6037652234836148e-29              18525                                7051                                    959                                    11663                               4                                      25577                            2585.9246877253959        3.6338445960115279e-18           10.827002091134494                   18.306341186569128                     18.306341186569128                  0                                1.7123977525184566e-17              1.7133508441734892e-17        0                    0                    0                    0                    0                    1.2924096894669128e-17  0                      18000                        18000                      0                    0.065972993289291043  0.065946901529184102 -1.3286004603776323e-10
                 13.196424254501144                5.0815427356717372e-17            -5.2668791375146616e-29              19563                                7454                                    1009                                   12320                               10                                     27018                            2585.924688185074         3.6338435041349109e-18           10.826885074132367                   18.306341186569128                     18.306341186569128                  0                                1.712650443927041e-17              1.7130981546330077e-17        0                    0                    0                    0                    0                    1.2924097866981972e-17  0                      19000                        19000                      0                    0.065966076093922549  0.065953818330477476 -2.7359277408848237e-10
                 4.890896475338578                 5.0815427334181915e-17            -4.4743204468004263e-30              20579                                7861                                    1059                                   12982                               10                                     28441                            2585.9246875199992        3.6338436906078508e-18           10.82685450294842                    18.306341186569128                     18.306341186569128                  0                                1.7127709816538138e-17              1.7129776164056628e-17        0                    0                    0                    0                    0                    1.2924097662979297e-17  0                      20000                        20000                      0                    0.065962776562041511  0.065957118988108854 -2.4281721583385384e-10
                 3.2634282587188959                5.0815427329498201e-17            -8.6281661508548166e-31              21598                                8258                                    1110                                   13648                               8                                      29857                            2585.9246871325495        3.6338440682160303e-18           10.826851126069348                   18.306341186569128                     18.306341186569128                  0                                1.7128246051956013e-17              1.7129239925538839e-17        0                    0                    0                    0                    0                    1.292409728378732e-17  0                      21000                        21000                      0                    0.065961308536569938  0.065958587797390653 -1.5277325235549177e-10
                 0.88107252781814116               5.0815427328608631e-17            -9.5526125241606898e-31              22230                                8513                                    1139                                   14048                               8                                      30744                            2585.924687402156         3.633843941412906e-18           10.82684174510028                    18.306341186569128                     18.306341186569128                  0                                1.7128440840868928e-17              1.7129045137339331e-17        0                    0                    0                    0                    0                    1.2924097408987462e-17  0                      21617                        21617                      0                    0.065960775286722534  0.06595912087172412 -1.7604257408195387e-10
                 5755.0415405792455                4.9854378402573405e-17            -1.630567893375238e-23              22626                                8641                                    1158                                   14305                               0                                      31269                            2585.3332969145122        3.6370606320798139e-18           10.858388305938179                   11.245789907371851                     18.306341186569128                  0                                1.6619297556423901e-17              1.763779992545315e-17       -1.1137655655564286e-18  10.000000057057898   10.000000057057898   0                    0                    1.307398585417297e-17  0                      22000                        382                        1                    0.092345641137819831  0.040522120772414801 -1.7911747371977778e-10
                 1269.1174171332921                4.9848381789376791e-17            -2.3455920144436227e-24              23626                                9043                                    1209                                   14957                               9                                      32671                            2585.3547301064468        3.6396383270796018e-18           10.909227057330996                   11.245789907371851                     18.306341186569128                  0                                1.6030380978211408e-17              1.8226767771079005e-17       -1.1172722007555019e-18  10.000000057057898   10.000000057057898   0                    0                    1.3068866913762275e-17  0                      23000                        1382                       1                    0.092636386771998758  0.038928274844169948 -1.8275056649370323e-10
                 723.83452155989755                4.9847096019876515e-17            -4.9431671068288249e-25              24653                                9455                                    1260                                   15613                               8                                      34110                            2585.3641577936919        3.6409901633905882e-18           10.938960433346425                   11.245789907371851                     18.306341186569128                  0                                1.575310210692208e-17              1.8504106744536121e-17       -1.1187470668661312e-18  10.000000057057898   10.000000057057898   0                    0                    1.306764407189386e-17  0                      24000                        2382                       1                    0.092758672341593545  0.038208827189267137 -1.8330592430598679e-10
                 512.26647933342542                4.9846859982036981e-17            -9.3401069548409577e-27              25696                                9859                                    1312                                   16274                               10                                     35557                            2585.3686480656447        3.6416470400453245e-18           10.947819522382389                   11.245789907371851                     18.306341186569128                  0                                1.5635192827097183e-17              1.8622043642554331e-17       -1.1193305592702148e-18  10.000000057057898   10.000000057057898   0                    0                    1.306730703161036e-17  0                      25000                        3382                       1                    0.092807051445619404  0.037905027411992337 -1.8456254182426239e-10
                 276.74168583774764                4.9846814758915355e-17            -2.4560660431111329e-26              26783                                10227                                   1361                                   16966                               10                                     37012                            2585.3707039436372        3.6419502319601474e-18           10.95200834993792                    11.245789907371851                     18.306341186569128                  0                                1.5582358653361035e-17              1.8674891575864663e-17       -1.1195847455637205e-18  10.000000057057898   10.000000057057898   0                    0                    1.3067199043293229e-17  0                      26000                        4382                       1                    0.092828126793047236  0.037769290485056881 -1.8549378948472498e-10
                 311.46018779682981                4.9846807110759273e-17            -3.6968055800677886e-27              27855                                10606                                   1413                                   17648                               16                                     38463                            2585.3714713277377        3.6420716084895413e-18           10.9535571270911                     11.245789907371851                     18.306341186569128                  0                                1.5561006264069687e-17              1.8696249495175361e-17       -1.1196879071459454e-18  10.000000057057898   10.000000057057898   0                    0                    1.3067167650170633e-17  0                      27000                        5382                       1                    0.092836680229016297  0.037714500233583234 -1.8549137294905613e-10
                 26.598578981257294                4.984680569667716e-17            -9.5168672643928627e-29              28911                                10995                                   1465                                   18321                               3                                      39908                            2585.3718134045407        3.642121415516092e-18           10.954368788892614                   11.245789907371851                     18.306341186569128                  0                                1.5551849819254049e-17              1.8705408303987869e-17       -1.1197318972014636e-18  10.000000057057898   10.000000057057898   0                    0                    1.3067158055120619e-17  0                      28000                        6382                       1                    0.092840327576368994  0.037691021058043853 -1.8550709042672557e-10